 Gaussian 16, Revision A.03,
 Gaussian 16:  ES64L-G16RevA.03 25-Dec-2016

 ----------------------------------------------------------------------
 # rpbe1pbe 6-311++g(d,p) scrf=(smd,solvent=methanol) empiricaldispersi
 on=gd3bj pop=nboread
 ----------------------------------------------------------------------

 ------------
 Conformation
 ------------
 Symbolic Z-matrix:
 Charge =  0 Multiplicity = 1

                         Standard orientation:
 ---------------------------------------------------------------------
 Center     Atomic      Atomic             Coordinates (Angstroms)
 Number     Number       Type             X           Y           Z
 ---------------------------------------------------------------------
      1          6           0       -3.045810   -0.173617   -0.526277
      2          6           0       -1.636884   -0.123817    0.003495
      3          7           0       -0.892582   -1.295456   -0.391291
      4          1           0       -1.133368   -1.601983   -1.328778
      5          6           0        0.543470   -1.135756   -0.280498
      6          6           0        1.223296   -2.447578    0.029671
      7          1           0        2.309770   -2.353081    0.014224
      8          1           0        0.903106   -2.790341    1.016457
      9          1           0        0.921863   -3.199352   -0.705545
     10          8           0        1.109021   -0.699732   -1.537525
     11          8           0        0.995045    0.748870   -1.574550
     12          6           0        0.362693    1.142706   -0.360624
     13          6           0        0.756224    2.574245   -0.107690
     14          1           0        0.338559    2.896179    0.849165
     15          1           0        1.839769    2.691805   -0.087394
     16          1           0        0.342881    3.207638   -0.896897
     17          8           0       -1.036649    1.087148   -0.537470
     18          6           0        0.816758    0.064183    0.643206
     19          6           0       -0.063078    0.037572    1.890775
     20          6           0       -1.548669    0.003456    1.515893
     21          1           0       -2.062708   -0.841382    1.979838
     22          1           0       -2.060885    0.920190    1.818662
     23          1           0        0.173097    0.916134    2.497568
     24          1           0        0.218994   -0.837616    2.483286
     25          6           0        2.283595    0.197361    1.010677
     26          1           0        2.448511    1.121782    1.569933
     27          1           0        2.931889    0.204804    0.131447
     28          1           0        2.583971   -0.633819    1.654156
     29          1           0       -3.588276    0.727753   -0.232308
     30          1           0       -3.039873   -0.239659   -1.618395
     31          1           0       -3.568125   -1.043681   -0.121785
 ---------------------------------------------------------------------

 SCF Done:  E(RPBE1PBE) =  -671.132667847     A.U. after   14 cycles

 The electronic state is 1-A.
 Alpha  occ. eigenvalues --  -19.26631 -19.26443 -19.21448 -14.37435 -10.33449
 Alpha  occ. eigenvalues --  -10.31535 -10.30646 -10.24809 -10.21878 -10.21297
 Alpha  occ. eigenvalues --  -10.21099 -10.21093 -10.20724 -10.20686  -1.18116
 Alpha  occ. eigenvalues --   -1.08427  -0.98996  -0.91489  -0.86003  -0.81850
 Alpha  occ. eigenvalues --   -0.75260  -0.74849  -0.74328  -0.68911  -0.65979
 Alpha  occ. eigenvalues --   -0.62858  -0.60144  -0.57750  -0.55356  -0.52118
 Alpha  occ. eigenvalues --   -0.51443  -0.47762  -0.46626  -0.45693  -0.44318
 Alpha  occ. eigenvalues --   -0.43610  -0.42544  -0.42242  -0.41561  -0.40855
 Alpha  occ. eigenvalues --   -0.40327  -0.39935  -0.39477  -0.39017  -0.38450
 Alpha  occ. eigenvalues --   -0.38187  -0.36562  -0.36196  -0.34202  -0.33152
 Alpha  occ. eigenvalues --   -0.31999  -0.29330  -0.28430  -0.25181
 Alpha virt. eigenvalues --    0.00589   0.00927   0.01770   0.02483   0.02714
 Alpha virt. eigenvalues --    0.03825   0.04168   0.04359   0.04662   0.04951
 Alpha virt. eigenvalues --    0.06581   0.06795   0.06965   0.07255   0.07486

 Mulliken charges:
               1
     1  C   -0.716776
     2  C   -0.915596
     3  N    0.059313
     4  H    0.402102
     5  C   -1.301986
     6  C   -0.350793
     7  H    0.234714
     8  H    0.246855
     9  H    0.223139
    10  O    0.082734
    11  O    0.016949
    12  C   -1.178586
    13  C   -0.471849
    14  H    0.237815
    15  H    0.248797
    16  H    0.236633
    17  O    0.141594
    18  C    1.435162
    19  C   -0.479507
    20  C   -0.415334
    21  H    0.245466
    22  H    0.239684
    23  H    0.239746
    24  H    0.230528
    25  C   -0.091140
    26  H    0.225694
    27  H    0.269345
    28  H    0.225833
    29  H    0.228851
    30  H    0.215376
    31  H    0.235238
 Sum of Mulliken charges =  -0.00000

 Dipole moment (field-independent basis, Debye):
    X=             -0.6584    Y=             -0.9143    Z=              4.9359  Tot=              5.0629
 Quadrupole moment (field-independent basis, Debye-Ang):
   XX=            -81.3297   YY=            -80.8404   ZZ=            -88.3011
   XY=              1.8842   XZ=              5.4456   YZ=              3.6669

 Summary of Natural Population Analysis:

                                       Natural Population
                Natural  -----------------------------------------------
    Atom  No    Charge         Core      Valence    Rydberg      Total
 -----------------------------------------------------------------------
      C    1   -0.61818      1.99919     4.60652    0.01247     6.61818
      C    2    0.44992      1.99913     3.51616    0.03479     5.55008
      N    3   -0.73198      1.99931     5.71007    0.02259     7.73198
      H    4    0.39644      0.00000     0.59950    0.00407     0.60356
      C    5    0.44962      1.99904     3.51258    0.03876     5.55038
      C    6   -0.62440      1.99918     4.61136    0.01386     6.62440
      H    7    0.23040      0.00000     0.76805    0.00155     0.76960
      H    8    0.23553      0.00000     0.76300    0.00148     0.76447
      H    9    0.23259      0.00000     0.76562    0.00179     0.76741
      O   10   -0.36640      1.99974     6.34915    0.01752     8.36640
      O   11   -0.35906      1.99972     6.34101    0.01834     8.35906
      C   12    0.57709      1.99897     3.37823    0.04571     5.42291
      C   13   -0.63239      1.99916     4.62024    0.01299     6.63239
      H   14    0.23717      0.00000     0.76138    0.00145     0.76283
      H   15    0.23493      0.00000     0.76359    0.00148     0.76507
      H   16    0.23692      0.00000     0.76129    0.00179     0.76308
      O   17   -0.66799      1.99971     6.64542    0.02286     8.66799
      C   18   -0.11687      1.99889     4.09253    0.02545     6.11687
      C   19   -0.40947      1.99920     4.39246    0.01781     6.40947
      C   20   -0.42319      1.99914     4.40838    0.01567     6.42319
      H   21    0.22704      0.00000     0.77114    0.00182     0.77296
      H   22    0.22236      0.00000     0.77586    0.00178     0.77764
      H   23    0.23095      0.00000     0.76717    0.00189     0.76905
      H   24    0.23060      0.00000     0.76757    0.00183     0.76940
      C   25   -0.61217      1.99928     4.59851    0.01438     6.61217
      H   26    0.22824      0.00000     0.77023    0.00152     0.77176
      H   27    0.22857      0.00000     0.76971    0.00173     0.77143
      H   28    0.22798      0.00000     0.77047    0.00155     0.77202
      H   29    0.23042      0.00000     0.76814    0.00145     0.76958
      H   30    0.22436      0.00000     0.77375    0.00189     0.77564
      H   31    0.23100      0.00000     0.76759    0.00140     0.76900
 =======================================================================
   * Total *    0.00000     27.98965    79.66667    0.34367   108.00000

 Normal termination of Gaussian 16 at Thu Sep 23 17:24:19 2021.
